formula,p Band Center,formula entropy,A_site_Z,A_site_ionization_energy,A_site_eletronegativity,A_site_radius,A_site_lewis_acid_strengths,A_site_g,A_site_p,A_site_mass,A_site_Valence_electron,A_site_Polarization_rate,Tolerance_factor,A_minus_B_electronegativity,polarizability_density,ionic_potential,radius_times_eneg,entropy_times_eneg,entropy_times_polarization,entropy_per_valence,ionization_energy_per_radius,polarization_per_mass,lewis_strength_per_radius,mass_times_radius,entropy_times_ionization,log_mass,radius_squared,mass_per_radius3,mass_times_ionization
La0.200Sr0.200Li0.200Ba0.200Pr0.200Fe1O3,-1.478511621,-1.6094379124341005,42.0,4.390000000000001,0.908,1.146,0.244,2.2,4.800000000000001,100.954,2.0,29.24,0.8803392982400734,-0.922,19.427795142931092,3.830715532286214,1.040568,-1.4613696244901633,-47.059964559573096,-0.8047189562170503,3.830715532286214,0.28963686431444025,0.2129144851657941,115.69328399999998,-7.065432435585702,4.614664967549881,1.3133159999999997,67.0763895642772,443.18806
La0.250Sr0.250Ca0.250Ba0.250Fe1O3,-1.917547929,-1.3862943611198906,42.75,5.6475,1.035,1.4375,0.2655,2.5,5.75,100.985,2.25,33.4,0.9811322697392804,-0.7950000000000002,11.244053587572942,3.928695652173913,1.4878125,-1.4348146637590866,-46.30223166140434,-0.6161308271643958,3.928695652173913,0.33074218943407435,0.18469565217391307,145.1659375,-7.829097404424582,4.614971990960352,2.06640625,33.996429686857894,570.3127875
La0.167Sr0.167Na0.167Ca0.167Pr0.167Bi0.167Fe1O3,-1.580057719,-1.6094379124341005,44.66666666666666,5.880000000000001,1.2666666666666668,1.3133333333333332,0.2799999999999999,2.333333333333333,5.5,106.58166666666668,2.666666666666667,30.816666666666663,0.9381987284202926,-0.5633333333333332,13.603816321322714,4.477157360406093,1.6635555555555557,-2.0386213557498607,-49.597511668177525,-0.6035392171627876,4.477157360406093,0.2891366557725687,0.21319796954314715,139.97725555555556,-9.463494925112512,4.668911514452004,1.7248444444444442,47.04978095901928,626.7002000000001
La0.200Sr0.200Li0.200Ca0.200Nd0.200Fe1O3,-1.192735457,-1.6094379124341005,35.0,4.582000000000001,0.878,1.082,0.2226,2.0,4.6000000000000005,82.17,2.0,25.76,0.8582097950635751,-0.9520000000000001,20.335931783331556,4.234750462107209,0.9499960000000001,-1.4130864871171402,-41.45912062430243,-0.8047189562170503,4.234750462107209,0.31349640988195204,0.20573012939001847,88.90794000000001,-7.3744445147730495,4.408790271943096,1.170724,64.86814886010691,376.5029400000001
La0.167Sr0.167Na0.167Ca0.167Gd0.167Bi0.167Fe1O3,-1.36159952,-1.6094379124341005,45.50000000000001,5.993333333333334,1.265,1.29,0.2826666666666667,2.333333333333333,5.5,109.305,2.666666666666667,30.166666666666668,0.9301306803871944,-0.5650000000000002,14.052648831137935,4.645994832041344,1.63185,-2.035938959229137,-48.55137702509537,-0.6035392171627876,4.645994832041344,0.27598615494869094,0.2191214470284238,141.00345000000002,-9.645897888521711,4.6941421397903556,1.6641000000000001,50.917948524448576,655.1013000000002
La0.200Sr0.200Li0.200Ba0.200Eu0.200Fe1O3,-1.226922208,-1.6094379124341005,42.8,4.430000000000001,0.868,1.122,0.243,2.2,4.800000000000001,103.16400000000002,2.0,28.600000000000005,0.8720407345488865,-0.9620000000000001,20.248248510928228,3.948306595365419,0.9738960000000001,-1.3969921079927992,-46.02992429561528,-0.8047189562170503,3.948306595365419,0.27722849055872206,0.21657754010695185,115.75000800000002,-7.1298099520830664,4.636319954980308,1.2588840000000003,73.03812270564335,457.0165200000001
La0.333Sr0.333Nd0.333Fe1O3,-2.42256937,-1.0986122886681096,51.66666666666666,5.6,1.13,1.356666666666667,0.297,2.6666666666666665,6.0,123.59000000000002,2.6666666666666665,34.833333333333336,0.953182246196047,-0.7000000000000002,13.950043832506141,4.127764127764126,1.5330333333333335,-1.2414318861949636,-38.268328055272484,-0.4119796082505411,4.127764127764126,0.2818458882865388,0.21891891891891888,167.6704333333334,-6.152228816541413,4.8169696356016445,1.8405444444444452,49.49528949070146,692.104
La0.333Sr0.333Na0.333Fe1O3,-2.2371942,-1.0986122886681096,35.33333333333333,5.469999999999999,1.06,1.3966666666666665,0.2093333333333333,2.0,5.333333333333333,83.17333333333333,2.0,37.63333333333333,0.9670131856813582,-0.77,13.813202623994636,3.9164677804295938,1.4804666666666666,-1.1645290259881962,-41.34444246354319,-0.5493061443340548,3.9164677804295938,0.4524687399807631,0.14988066825775656,116.1654222222222,-6.009409219014558,4.4209267836314385,1.9506777777777773,30.5285236380792,454.95813333333325
La0.200Sr0.200Sm0.200Y0.200Bi0.200Fe1O3,-1.658366047,-1.3862943611198906,55.8,6.0840000000000005,1.332,1.27,0.3334,2.8000000000000003,6.000000000000001,134.956,3.2,29.960000000000004,0.9232152106445388,-0.498,14.626170984625434,4.790551181102362,1.69164,-1.8465440890116944,-41.533379059151926,-0.43321698784996576,4.790551181102362,0.22199828092118917,0.26251968503937007,171.39412,-8.434214893053415,4.904948799387105,1.6129,65.8841632643895,821.072304
La0.333Sr0.333Ba0.333Fe1O3,-2.17356268,-1.0986122886681096,50.33333333333333,5.493333333333333,1.0466666666666666,1.4700000000000002,0.2799999999999999,2.6666666666666665,6.0,121.28666666666668,2.333333333333333,36.43333333333333,0.992369908071096,-0.7833333333333334,11.469563838616411,3.736961451247165,1.5386000000000002,-1.149880862139288,-40.02610771714146,-0.47083383800061845,3.736961451247165,0.30039025999010605,0.19047619047619038,178.29140000000004,-6.035043505750148,4.7981568896005475,2.1609000000000007,38.18220949971608,666.2680888888889
La0.333Sr0.333K0.333Fe1O3,-2.165999088,-1.0986122886681096,38.0,5.203333333333333,1.0233333333333332,1.48,0.2063333333333333,2.0,5.666666666666666,88.54333333333334,2.0,40.8,0.9958276429424238,-0.8066666666666669,12.585631650642608,3.5157657657657655,1.514533333333333,-1.1242465754036985,-44.82338137765887,-0.5493061443340548,3.5157657657657655,0.460791326280917,0.1394144144144144,131.04413333333335,-5.716445942036397,4.483492074362823,2.1904,27.313082805230362,460.7204777777778
La0.333Sr0.333Li0.333Fe1O3,-1.61815816,-1.0986122886681096,31.666666666666664,3.756666666666667,0.75,0.9333333333333332,0.1733333333333333,1.6666666666666663,4.0,75.51,1.6666666666666663,23.166666666666668,0.806804803309834,-1.08,28.493986880466483,4.025,0.7,-0.8239592165010822,-25.451184687477873,-0.6591673732008659,4.025,0.3068026309981018,0.18571428571428572,70.476,-4.127120164429865,4.324265097815334,0.871111111111111,92.87399781341111,283.6659
La0.250Sr0.250Mg0.250Eu0.250Fe1O3,-1.640729341,-1.5990147122062974,42.5,6.147500000000001,1.19,1.2575,0.28975,2.5,5.5,100.7,2.5,30.5,0.9188930420553788,-0.6400000000000001,15.33825162648525,4.888667992047714,1.4964250000000001,-1.902827507525494,-48.76994872229207,-0.639605884882519,4.888667992047714,0.3028798411122145,0.23041749502982106,126.63025,-9.829942943288215,4.612145799724517,1.5813062500000001,50.641375042198845,619.05325
La0.333Sr0.333Ca0.333Fe1O3,-2.162387522,-1.0986122886681096,38.33333333333333,5.793333333333334,1.0833333333333337,1.38,0.2473333333333333,2.333333333333333,5.666666666666666,88.87,2.333333333333333,31.26666666666667,0.9612502942291452,-0.7466666666666664,11.897188001952259,4.198067632850242,1.4950000000000003,-1.1901633127237858,-34.34994422568956,-0.47083383800061845,4.198067632850242,0.35182476276208696,0.1792270531400966,122.64059999999999,-6.364627192350582,4.487174627750384,1.9043999999999996,33.815664106615046,514.8535333333334
La0.333Sr0.333Mg0.333Fe1O3,-1.900632014,-1.2552761900517635,35.666666666666664,6.306666666666668,1.1866666666666663,1.2766666666666668,0.2613333333333333,2.333333333333333,5.333333333333333,83.61333333333333,2.333333333333333,29.433333333333334,0.925520367225424,-0.6433333333333338,14.145128304430212,4.939947780678852,1.5149777777777775,-1.4895944121947589,-36.94696252719024,-0.5379755100221845,4.939947780678852,0.352017222133631,0.2046997389033942,106.74635555555557,-7.9166085052597905,4.42620299700671,1.6298777777777782,40.18305757512202,527.3214222222224
La0.500Bi0.500Fe1O3,-3.5,-0.0,70.0,6.4350000000000005,1.66,1.195,0.388,3.0,6.0,173.945,4.0,24.9,0.8972821991095797,-0.17000000000000015,14.591355251961277,5.384937238493724,1.9837,-0.0,-0.0,-0.0,5.384937238493724,0.14314869642703154,0.32468619246861924,207.864275,-0.0,5.158739157292914,1.428025,101.93145740170299,1119.336075
La0.200Sr0.200Ba0.200Sm0.200Sm0.200Fe1O3,-1.905954725,-1.3321790402101223,55.0,5.552,1.096,1.378,0.3164,2.8000000000000003,6.000000000000001,132.916,2.6,35.660000000000004,0.9605587472548796,-0.734,13.628048990865677,4.029027576197388,1.510288,-1.4600682280702941,-47.50550457389297,-0.5123765539269701,4.029027576197388,0.26828974690782154,0.2296081277213353,183.158248,-7.396258031246599,4.889717349744385,1.8988839999999998,50.7960112077931,737.949632
La0.250Sr0.250Ca0.250Bi0.250Fe1O3,-2.183491884,-1.0986122886681096,49.5,6.1675,1.3175,1.2925,0.298,2.5,5.75,118.8975,3.0,26.15,0.9309951141050264,-0.5125000000000002,12.111000941880706,4.771760154738878,1.70286875,-1.4474216903202342,-28.728711348671062,-0.36620409622270317,4.771760154738878,0.2199373409869846,0.23056092843326886,153.67501875,-6.775691290360566,4.778261777403356,1.67055625,55.06568774329871,733.30033125
La0.250Sr0.250Mg0.250Sm0.250Fe1O3,-1.686699858,-1.5990147122062974,42.25,6.140000000000001,1.1825,1.2675,0.28875,2.5,5.5,100.3,2.5,30.7,0.9223507769267068,-0.6475,15.076289608801666,4.844181459566075,1.4988187500000003,-1.8908348971839468,-49.08975166473333,-0.639605884882519,4.844181459566075,0.30608175473579263,0.22781065088757396,127.13025,-9.817950332946667,4.60816569496789,1.6065562500000001,49.25576051344649,615.842
Sr0.500Bi0.500Fe1O3,-2.946470012,-0.0,60.5,6.49,1.485,1.235,0.322,2.5,6.0,148.3,3.5,20.65,0.9111131385948912,-0.345,10.962741741893392,5.255060728744939,1.8339750000000004,-0.0,-0.0,-0.0,5.255060728744939,0.13924477410654076,0.26072874493927123,183.15050000000002,-0.0,4.999237249143887,1.5252250000000003,78.7300048582465,962.4670000000001
La0.500Pr0.500Fe1O3,-2.766580158,-0.6931471805599453,58.0,5.525,1.35,1.34,0.353,3.0,6.0,139.91,3.0,37.95,0.947419354743834,-0.48,15.772385566043694,4.123134328358209,1.8090000000000002,-0.9357486937559262,-26.304935502249926,-0.23104906018664842,4.123134328358209,0.2712458008719892,0.2634328358208955,187.4794,-3.829638172593698,4.940999358745194,1.7956000000000003,58.14794372978058,773.00275
La0.500Gd0.500Fe1O3,-2.962050766,-0.6931471805599453,60.5,5.865,1.345,1.27,0.361,3.0,6.0,148.07999999999998,3.0,36.0,0.9232152106445388,-0.4850000000000001,17.574838299282895,4.618110236220472,1.70815,-0.9322829578531264,-24.95329850015803,-0.23104906018664842,4.618110236220472,0.24311183144246357,0.28425196850393697,188.06159999999997,-4.065308213984079,4.997752668265242,1.6129,72.29116820438364,868.4892
La0.500Y0.500Fe1O3,-2.807984954,-0.6931471805599453,48.0,5.9,1.26,1.32,0.326,3.0,6.0,113.91,3.0,37.0,0.940503885001178,-0.5700000000000001,16.087180343378687,4.46969696969697,1.6632,-0.873365447505531,-25.646445680717974,-0.23104906018664842,4.46969696969697,0.32481783864454394,0.24696969696969698,150.3612,-4.089568365303678,4.735408662911821,1.7424000000000002,49.5267760247099,672.0690000000001
La0.500Eu0.500Fe1O3,-2.789973101,-0.6931471805599453,60.0,5.625,1.25,1.28,0.3505,3.0,6.0,145.435,3.0,36.35,0.9266729455158664,-0.5800000000000001,17.33303070068359,4.39453125,1.6,-0.8664339756999316,-25.195900013354013,-0.23104906018664842,4.39453125,0.24993983566541755,0.273828125,186.1568,-3.898952890649692,4.979729251400373,1.6384,69.34881210327147,818.071875
La0.500Ca0.500Fe1O3,-3.119621502,-0.6931471805599453,38.5,5.845000000000001,1.15,1.35,0.274,2.5,5.5,89.495,2.5,31.65,0.9508770896151616,-0.6800000000000002,12.863892699283642,4.32962962962963,1.5525,-0.797119257643937,-21.938108264722267,-0.2772588722239781,4.32962962962963,0.35365104195765124,0.20296296296296296,120.81825000000002,-4.051445270372881,4.494182757798463,1.8225000000000002,36.37453640197124,523.0982750000001
La0.500Na0.500Fe1O3,-2.603815851,-0.6931471805599453,34.0,5.359999999999999,1.115,1.375,0.217,2.0,5.0,80.95,2.0,41.2,0.9595214267934812,-0.7150000000000001,15.848534936138243,3.898181818181818,1.533125,-0.772859106324339,-28.557663839069747,-0.34657359027997264,3.898181818181818,0.5089561457689932,0.15781818181818183,111.30625,-3.7152688878013063,4.393831680123644,1.890625,31.139293764087153,433.892
La0.500Mg0.500Fe1O3,-3.002037441,-0.6365141682948128,34.5,6.615,1.3050000000000002,1.195,0.295,2.5,5.0,81.61,2.5,28.9,0.8972821991095797,-0.5249999999999999,16.93534806352132,5.535564853556485,1.5594750000000002,-0.8306509896247308,-18.395259463720087,-0.2546056673179251,5.535564853556485,0.354123269207205,0.24686192468619245,97.52395,-4.210541223270186,4.401951803481151,1.428025,47.82331333785381,539.85015
La0.250Sr0.250Ba0.250Bi0.250Fe1O3,-1.926585783,-1.0986122886681096,58.5,5.9425,1.29,1.36,0.3225,2.75,6.0,143.21,3.0,30.025,0.9543348244864894,-0.54,11.936205602483206,4.369485294117647,1.7544000000000002,-1.4172098523818615,-32.985833967259985,-0.36620409622270317,4.369485294117647,0.20965714684728717,0.23713235294117646,194.76560000000003,-6.528503525410241,4.9643120844906115,1.8496000000000004,56.93202345817219,851.025425
La0.500Ba0.500Fe1O3,-2.565986654,-0.6931471805599453,56.5,5.395,1.095,1.485,0.323,3.0,6.0,138.12,2.5,39.4,0.9975565103780876,-0.7350000000000001,12.031419257439275,3.6329966329966323,1.6260750000000002,-0.7589961627131401,-27.309998914061843,-0.2772588722239781,3.6329966329966323,0.2852591949029829,0.2175084175084175,205.1082,-3.7395290391209044,4.928122872521792,2.2052250000000004,42.17714791465769,745.1573999999999
Sr0.500Y0.500Fe1O3,-2.414125925,-0.6931471805599453,38.5,5.955,1.085,1.36,0.26,2.5,6.0,88.265,2.5,32.75,0.9543348244864894,-0.7450000000000001,13.019508192550374,4.378676470588235,1.4756,-0.7520646909075406,-22.70057016333821,-0.2772588722239781,4.378676470588235,0.37104174927774314,0.19117647058823528,120.0404,-4.127691460234474,4.480343653041246,1.8496000000000004,35.08906536230408,525.618075
Sr0.500Eu0.500Fe1O3,-2.541852613,-0.6931471805599453,50.5,5.68,1.075,1.3199999999999998,0.2845,2.5,6.0,119.79,2.5,32.1,0.940503885001178,-0.7550000000000001,13.956715919525841,4.303030303030304,1.4189999999999998,-0.7451332191019412,-22.250024495974245,-0.2772588722239781,4.303030303030304,0.26796894565489604,0.21553030303030304,158.12279999999998,-3.937075985580489,4.785740209743239,1.7423999999999995,52.08333333333335,680.4072
Sr0.500Sm0.500Fe1O3,-2.288317516,-0.6931471805599453,50.0,5.665,1.06,1.34,0.2825,2.5,6.0,118.99,2.5,32.5,0.9474193547438337,-0.77,13.507313067099341,4.227611940298507,1.4204,-0.734736011393542,-22.527283368198223,-0.2772588722239781,4.227611940298507,0.2731321959828557,0.21082089552238803,159.4466,-3.92667877787209,4.779039455967062,1.7956000000000003,49.45339021089694,674.07835
La0.500K0.500Fe1O3,-2.353340568,-0.6931471805599453,38.0,4.96,1.06,1.5,0.2125,2.0,5.5,89.005,2.0,45.95,1.0027431126850794,-0.77,13.614814814814816,3.3066666666666666,1.59,-0.734736011393542,-31.85011294672949,-0.34657359027997264,3.3066666666666666,0.5162631312847593,0.14166666666666666,133.5075,-3.4380100155773285,4.488692547929396,2.25,26.37185185185185,441.46479999999997
Sr0.500Nd0.500Fe1O3,-2.293213885,-0.6931471805599453,49.0,5.61,1.045,1.355,0.2825,2.5,6.0,115.93,2.5,32.75,0.9526059570508256,-0.7850000000000001,13.164168079093136,4.1402214022140225,1.415975,-0.7243388036851428,-22.70057016333821,-0.2772588722239781,4.1402214022140225,0.28249805917363924,0.2084870848708487,157.08515,-3.888555682941293,4.75298656068231,1.836025,46.599145203336406,650.3673000000001
Sr0.500Ca0.500Fe1O3,-2.274897614,-0.6931471805599453,29.0,5.9,0.975,1.39,0.208,2.0,5.5,63.85,2.0,27.4,0.964708029100473,-0.8550000000000001,10.202489630882118,4.244604316546763,1.3552499999999998,-0.6758185010459467,-18.9922327473425,-0.34657359027997264,4.244604316546763,0.4291307752545027,0.14964028776978416,88.7515,-4.089568365303678,4.156536582478548,1.9320999999999997,23.774779669044644,376.71500000000003
Sr0.500Ba0.500Fe1O3,-2.50823579,-0.6931471805599453,47.0,5.45,0.92,1.525,0.257,2.5,6.0,112.475,2.0,35.15,1.011387449863399,-0.91,9.910961710451536,3.573770491803279,1.403,-0.6376954061151497,-24.364123396682075,-0.34657359027997264,3.573770491803279,0.31251389197599466,0.16852459016393445,171.524375,-3.777652134051702,4.722730974727236,2.3256249999999996,31.713667663813276,612.98875
Sr0.500Na0.500Fe1O3,-1.946188771,-0.6931471805599453,24.5,5.415,0.94,1.415,0.151,1.5,5.0,55.305,1.5,36.95,0.9733523662787928,-0.8900000000000001,13.042027846494273,3.8268551236749118,1.3301,-0.6515583497263485,-25.611788321689982,-0.46209812037329684,3.8268551236749118,0.6681131904891059,0.10671378091872791,78.256575,-3.753391982732104,4.012863320354217,2.002225,19.520686063609354,299.476575
Sr0.500K0.500Fe1O3,-2.224622174,-0.6931471805599453,28.5,5.015000000000001,0.885,1.54,0.1465,1.5,5.5,63.36,1.5,41.7,1.016574052170391,-0.9450000000000001,11.417575509327913,3.256493506493507,1.3629,-0.6134352547955516,-28.90423742934972,-0.46209812037329684,3.256493506493507,0.6581439393939394,0.09512987012987012,97.5744,-3.476133110508126,4.14883274750617,2.3716,17.34814350769824,317.7504
Sr0.500Mg0.500Fe1O3,-2.299691293,-0.6365141682948128,25.0,6.67,1.13,1.235,0.229,2.0,5.0,55.965,2.0,24.65,0.9111131385948912,-0.7000000000000002,13.086275251218987,5.4008097165991895,1.39555,-0.7192610101731384,-15.690074248467134,-0.3182570841474064,5.4008097165991895,0.4404538550880014,0.1854251012145749,69.116775,-4.245549502526401,4.0247264953412305,1.5252250000000003,29.710888212351755,373.28655000000003
La0.500Li0.500Fe1O3,-1.711883423,-0.6931471805599453,28.5,2.79,0.65,0.68,0.163,1.5,3.0,69.455,1.5,19.5,0.719208853236195,-1.1800000000000002,62.01658864237736,4.102941176470588,0.44200000000000006,-0.45054566736396445,-13.516370020918933,-0.46209812037329684,4.102941176470588,0.28075732488661725,0.23970588235294116,47.229400000000005,-1.9338806337622474,4.240679060849352,0.4624000000000001,220.89036739263176,193.77945
Sr0.500Li0.500Fe1O3,-1.679989218,-0.6931471805599453,19.0,2.845,0.475,0.72,0.097,1.0,3.0,43.81,1.0,15.25,0.7330397927215064,-1.355,40.85755315500686,3.9513888888888893,0.34199999999999997,-0.329244910765974,-10.570494503539166,-0.6931471805599453,3.9513888888888893,0.34809404245606024,0.13472222222222224,31.5432,-1.9720037286930445,3.779862101825807,0.5184,117.37504286694103,124.63945000000001
La0.167Sr0.167K0.167Nd0.167Gd0.167Bi0.167Fe1O3,-1.077504044,-1.6094379124341005,53.5,5.763333333333334,1.27,1.32,0.306,2.5,5.833333333333333,129.35,2.833333333333333,33.53333333333333,0.940503885001178,-0.56,14.579912995890956,4.366161616161616,1.6764000000000001,-2.0439861487913076,-53.969817996956834,-0.568036910270859,4.366161616161616,0.2592449426620281,0.2318181818181818,170.742,-9.275727168661867,4.862521908632038,1.7424000000000002,56.23991290313604,745.4871666666667
La0.333Sr0.333Bi0.333Fe1O3,-2.048142901,-0.6931471805599453,59.33333333333333,6.186666666666667,1.4233333333333331,1.2766666666666668,0.3233333333333333,2.6666666666666665,6.0,145.17,3.333333333333333,26.766666666666666,0.925520367225424,-0.40666666666666695,12.863576476169264,4.845953002610966,1.817122222222222,-0.9865794869969886,-18.553239532987867,-0.2079441541679836,4.845953002610966,0.18438152970081056,0.2532637075718015,185.33370000000002,-4.2882705570641955,4.9779054694733365,1.6298777777777782,69.76607959074067,898.1184000000001
La0.333Sr0.333Pr0.333Fe1O3,-1.683671655,-1.0986122886681096,51.33333333333333,5.579999999999999,1.2166666666666668,1.3733333333333333,0.3,2.6666666666666665,6.0,122.48,2.6666666666666665,35.46666666666667,0.95894513764826,-0.6133333333333333,13.692807078071652,4.063106796116505,1.670888888888889,-1.3366449512128669,-38.96411583809562,-0.4119796082505411,4.063106796116505,0.2895710864358807,0.21844660194174756,168.20586666666668,-6.130256570768051,4.807947751349428,1.8860444444444444,47.286513465851954,683.4383999999999