formula,p Band Center,formula composition,formula_obj,formula entropy,A_site_obj,B_site_obj,A_site_Z,A_site_ionization_energy,A_site_eletronegativity,A_site_radius,A_site_lewis_acid_strengths,A_site_g,A_site_p,A_site_mass,A_site_Valence_electron,A_site_Polarization_rate,Tolerance_factor
La0.167Sr0.167K0.167Nd0.167Gd0.167Bi0.167Fe1O3,-1.077504044,La0.167Sr0.167K0.167Nd0.167Gd0.167Bi0.167FeO3.0,La0.167 Sr0.167 K0.167 Nd0.167 Gd0.167 Bi0.167 Fe1 O3,-1.6094379124341005,La0.167Sr0.167K0.167Nd0.167Gd0.167Bi0.167,Fe1,53.5,5.763333333333334,1.27,1.32,0.306,2.5,5.833333333333333,129.35,2.8333333333333335,33.53333333333333,0.940503885001178
La0.333Sr0.333Bi0.333Fe1O3,-2.048142901,La0.333Sr0.333Bi0.333FeO3.0,La0.333 Sr0.333 Bi0.333 Fe1 O3,-0.6931471805599453,La0.333Sr0.333Bi0.333,Fe1,59.33333333333333,6.186666666666667,1.4233333333333331,1.2766666666666668,0.3233333333333333,2.6666666666666665,6.0,145.17,3.333333333333333,26.766666666666666,0.925520367225424
La0.333Sr0.333Pr0.333Fe1O3,-1.683671655,La0.333Sr0.333Pr0.333FeO3.0,La0.333 Sr0.333 Pr0.333 Fe1 O3,-1.0986122886681096,La0.333Sr0.333Pr0.333,Fe1,51.33333333333333,5.579999999999999,1.2166666666666668,1.3733333333333333,0.30000000000000004,2.6666666666666665,6.0,122.48,2.6666666666666665,35.46666666666667,0.95894513764826
La0.333Sr0.333Gd0.333Fe1O3,-1.759686613,La0.333Sr0.333Gd0.333FeO3.0,La0.333 Sr0.333 Gd0.333 Fe1 O3,-1.0986122886681096,La0.333Sr0.333Gd0.333,Fe1,53.0,5.806666666666666,1.2133333333333334,1.3266666666666667,0.3053333333333334,2.6666666666666665,6.0,127.92666666666666,2.6666666666666665,34.16666666666667,0.9428090415820632