formula,p Band Center,formula entropy,A_site_Z,A_site_ionization_energy,A_site_eletronegativity,A_site_radius,A_site_lewis_acid_strengths,A_site_g,A_site_p,A_site_mass,A_site_Valence_electron,A_site_Polarization_rate,Tolerance_factor,A_minus_B_electronegativity,polarizability_density,ionic_potential,radius_times_eneg,entropy_times_eneg,entropy_times_polarization,entropy_per_valence,ionization_energy_per_radius,polarization_per_mass,lewis_strength_per_radius,mass_times_radius,entropy_times_ionization,log_mass,radius_squared,mass_per_radius3,mass_times_ionization
La0.167Sr0.167Na0.167Sm0.167Eu0.167Bi0.167Fe1O3,-2.000617639,-1.6094379124341005,52.333333333333336,5.835000000000001,1.2616666666666667,1.2766666666666666,0.304,2.5,5.666666666666667,126.80333333333334,2.833333333333333,31.98333333333334,0.925520367225424,-0.5683333333333334,15.370612240204753,4.570496083550915,1.6107277777777778,-2.0305741661876904,-51.475189232683995,-0.568036910270859,4.570496083550915,0.25222785941484194,0.2381201044386423,161.8855888888889,-9.391070219052978,4.8426373297753695,1.6298777777777778,60.93939137359342,739.8974500000002
La0.200Sr0.200Mg0.200Pr0.200Sm0.200Fe1O3,-1.893840959,-1.8368555699861957,45.6,6.006000000000001,1.226,1.278,0.307,2.6,5.6000000000000005,108.422,2.6,31.940000000000005,0.925981398541601,-0.6040000000000001,15.301793976960171,4.699530516431926,1.566828,-2.251984928803076,-58.6691669053591,-0.7064829115331521,4.699530516431926,0.2945896589253104,0.24021909233176839,138.563316,-11.032154553337094,4.686031020443089,1.633284,51.94273971728163,651.1825320000002
La0.167Sr0.167K0.167Mg0.167Ba0.167Pr0.167Fe1O3,-1.579092794,-2.019992658983094,40.16666666666666,5.656666666666667,1.1116666666666668,1.4,0.2638333333333333,2.333333333333333,5.5,94.69666666666669,2.166666666666667,36.31666666666667,0.9681657639718008,-0.7183333333333333,13.234936831875611,4.040476190476191,1.5563333333333333,-2.2455585059028733,-73.35940006540271,-0.9323043041460433,4.040476190476191,0.38350522721672703,0.18845238095238095,132.57533333333336,-11.426425140981037,4.550678800698901,1.9599999999999997,34.510447035957256,535.6674777777779
La0.167Sr0.167Mg0.167Ca0.167Ba0.167Y0.167Fe1O3,-1.793736584,-2.019992658983094,37.0,6.076666666666668,1.1116666666666668,1.3433333333333333,0.2753333333333333,2.5,5.5,86.19333333333334,2.333333333333333,31.23333333333333,0.9485719330342764,-0.7183333333333333,12.884481963841342,4.523573200992557,1.493338888888889,-2.2455585059028733,-63.0911040489053,-0.8657111395641833,4.523573200992557,0.3623636785520921,0.20496277915632755,115.78637777777779,-12.274822057753937,4.456592835158298,1.8045444444444443,35.55676997022513,523.7681555555557
La0.167Sr0.167Mg0.167Ca0.167Ba0.167Eu0.167Fe1O3,-1.862785803,-2.019992658983094,41.0,5.985000000000001,1.1083333333333334,1.3299999999999998,0.2835,2.5,5.5,96.70166666666668,2.333333333333333,31.01666666666667,0.9439616198725056,-0.7216666666666667,13.183787667484053,4.500000000000002,1.4740833333333332,-2.238825197039596,-62.65343897279231,-0.8657111395641833,4.500000000000002,0.3207459368159804,0.2131578947368421,128.61321666666666,-12.08965606401382,4.571630637746777,1.7688999999999997,41.103521991138756,578.7594750000002
La0.167Sr0.167K0.167Nd0.167Y0.167Bi0.167Fe1O3,-1.954134454,-1.6094379124341005,49.333333333333336,5.775,1.2416666666666667,1.336666666666667,0.2943333333333333,2.5,5.833333333333333,117.96,2.833333333333333,33.86666666666667,0.9462667764533912,-0.5883333333333334,14.180877307170498,4.320448877805486,1.6596944444444448,-1.9983854079390082,-54.50629730110154,-0.568036910270859,4.320448877805486,0.2871029727591274,0.22019950124688273,157.6732,-9.29450394430693,4.770345583947075,1.7866777777777785,49.39300060493598,681.219
La0.167Sr0.167Na0.167Mg0.167Ba0.167Y0.167Fe1O3,-1.724599243,-2.019992658983094,35.50000000000001,5.915,1.1,1.3516666666666668,0.2563333333333333,2.333333333333333,5.333333333333334,83.34500000000001,2.166666666666667,34.41666666666667,0.951453378760383,-0.73,13.936701365872283,4.376078914919852,1.4868333333333337,-2.2219919248814035,-69.52141401333483,-0.9323043041460433,4.376078914919852,0.4129421880936669,0.18964241676942042,112.65465833333336,-11.948256577885001,4.422988619395052,1.8270027777777782,33.749763932357155,492.98567500000007
La0.167Sr0.167K0.167Nd0.167Eu0.167Bi0.167Fe1O3,-1.88075259,-1.6094379124341005,53.33333333333333,5.683333333333334,1.2383333333333335,1.3233333333333333,0.3025,2.5,5.833333333333333,128.46833333333336,2.833333333333333,33.65,0.9416564632916206,-0.5916666666666666,14.520357611691963,4.2947103274559195,1.638727777777778,-1.9930206148975613,-54.15758575340748,-0.568036910270859,4.2947103274559195,0.26193225308441764,0.22858942065491183,170.00642777777782,-9.146972135667138,4.855682440761992,1.7512111111111108,55.43554656101182,730.1283611111113
La0.167Sr0.167Mg0.167Ca0.167Ba0.167Nd0.167Fe1O3,-1.529181624,-2.019992658983094,40.5,5.961666666666668,1.0983333333333334,1.3416666666666668,0.2828333333333332,2.5,5.5,95.415,2.333333333333333,31.23333333333333,0.9479956438890552,-0.7316666666666667,12.932558339589399,4.443478260869566,1.4735972222222224,-2.218625270449765,-63.0911040489053,-0.8657111395641833,4.443478260869566,0.3273419623050184,0.21080745341614895,128.015125,-12.042522901970882,4.5582357987988775,1.8000694444444447,39.50779254979475,568.8324250000002
La0.167Sr0.167Na0.167Ca0.167Y0.167Bi0.167Fe1O3,-1.818373224,-1.6094379124341005,41.333333333333336,6.005000000000001,1.2366666666666668,1.3066666666666666,0.271,2.333333333333333,5.5,97.915,2.666666666666667,30.500000000000004,0.9358935718394076,-0.5933333333333333,13.671161144591117,4.595663265306123,1.6159111111111113,-1.9903382183768379,-49.08785632924007,-0.6035392171627876,4.595663265306123,0.3114946637389573,0.20739795918367349,127.94226666666667,-9.664674664166775,4.5840997553688,1.7073777777777777,43.888909622053745,587.9795750000001
La0.167Sr0.167Pr0.167Nd0.167Gd0.167Y0.167Fe1O3,-1.847964923,-1.791759469228055,52.833333333333336,5.773333333333333,1.2333333333333334,1.3083333333333331,0.3321666666666666,2.833333333333333,6.0,126.30666666666669,2.833333333333333,34.9,0.9364698609846288,-0.5966666666666667,15.58368668074286,4.4127388535031855,1.6136111111111109,-2.209836678714601,-62.53240547605912,-0.6323856950216665,4.4127388535031855,0.27631162250606983,0.2538853503184713,165.25122222222222,-10.344424669009971,4.8387128123392245,1.7117361111111105,56.39895469978114,729.210488888889
La0.167Sr0.167Na0.167Ca0.167Eu0.167Bi0.167Fe1O3,-2.061583199,-1.6094379124341005,45.33333333333334,5.913333333333334,1.2333333333333336,1.2933333333333332,0.2791666666666667,2.333333333333333,5.5,108.42333333333332,2.666666666666667,30.28333333333333,0.9312832586776372,-0.5966666666666665,13.998202258640282,4.572164948453609,1.5951111111111114,-1.984973425335391,-48.73914478154601,-0.6035392171627876,4.572164948453609,0.2793064223568113,0.21585051546391754,140.22751111111108,-9.517142855526982,4.686043317994646,1.6727111111111108,50.11772425611364,641.1433111111111
La0.167Sr0.167K0.167Ba0.167Gd0.167Bi0.167Fe1O3,-1.950816484,-1.6094379124341005,52.83333333333334,5.71,1.2283333333333333,1.3766666666666667,0.2975,2.5,5.833333333333333,128.19833333333332,2.666666666666667,34.33333333333334,0.9600977159387024,-0.6016666666666668,13.15920277489685,4.147699757869249,1.6910055555555554,-1.97692623577322,-55.257368326904135,-0.6035392171627876,4.147699757869249,0.2678141941522902,0.21610169491525422,176.4863722222222,-9.189890479998715,4.853578543882041,1.8952111111111112,49.13556884671313,732.0124833333333
La0.167Sr0.167Na0.167Mg0.167Ba0.167Nd0.167Fe1O3,-1.46390272,-2.019992658983094,39.0,5.800000000000001,1.086666666666667,1.3500000000000003,0.2638333333333333,2.333333333333333,5.333333333333334,92.56666666666668,2.166666666666667,34.41666666666667,0.9508770896151616,-0.7433333333333332,13.988382529763408,4.296296296296296,1.4670000000000007,-2.195058689428296,-69.52141401333483,-0.9323043041460433,4.296296296296296,0.37180410514944184,0.19543209876543202,124.96500000000005,-11.715957422101948,4.5279291056446445,1.822500000000001,37.6229910752087,536.8866666666668
La0.167Sr0.167Na0.167Ca0.167Nd0.167Bi0.167Fe1O3,-1.937712584,-1.6094379124341005,44.833333333333336,5.890000000000001,1.2233333333333334,1.3050000000000002,0.2785,2.333333333333333,5.5,107.13666666666666,2.666666666666667,30.500000000000004,0.9353172826941862,-0.6066666666666667,13.72360799728632,4.513409961685824,1.5964500000000004,-1.9688790462110497,-49.08785632924007,-0.6035392171627876,4.513409961685824,0.28468311502442367,0.21340996168582374,139.81335,-9.479589304236853,4.6741052780280645,1.7030250000000005,48.206610343254596,631.0349666666667
La0.167Sr0.167Li0.167Na0.167Mg0.167Bi0.167Fe1O3,-1.654233558,-1.7968491076688844,33.50000000000001,5.2250000000000005,1.0850000000000002,1.0416666666666663,0.2236666666666666,1.8333333333333333,4.333333333333334,80.46833333333332,2.166666666666667,23.750000000000004,0.8442635977492192,-0.7449999999999999,21.012480000000025,5.016000000000003,1.130208333333333,-1.9495812818207399,-42.67516630713601,-0.8293149727702542,5.016000000000003,0.295147159338042,0.21472000000000002,83.82118055555551,-9.388536587569922,4.387863732291176,1.0850694444444438,71.19323136000006,420.4470416666666
La0.167Sr0.167Ca0.167Ba0.167Sm0.167Bi0.167Fe1O3,-1.79337151,-1.6094379124341005,52.66666666666667,5.920000000000001,1.221666666666667,1.336666666666667,0.3138333333333333,2.6666666666666665,5.833333333333333,127.21333333333337,2.833333333333333,29.816666666666663,0.9462667764533912,-0.6083333333333332,12.485034204000009,4.4289276807980045,1.6329611111111118,-1.9661966496903265,-47.98807375574342,-0.568036910270859,4.4289276807980045,0.23438318834503713,0.23478802992518696,170.0418222222223,-9.527872441609876,4.8458654672155355,1.7866777777777785,53.26761826287943,753.1029333333337
La0.200Sr0.200Mg0.200Ca0.200Gd0.200Fe1O3,-2.180711365,-1.8368555699861957,38.2,6.2360000000000015,1.19,1.27,0.2804,2.4,5.4,89.634,2.4,29.120000000000005,0.9232152106445388,-0.6400000000000001,14.216091424308834,4.910236220472442,1.5112999999999999,-2.1858581282835727,-53.48923419799803,-0.7653564874942482,4.910236220472442,0.3248767208871634,0.22078740157480314,113.83518000000001,-11.45463133443392,4.495734712288235,1.6129,43.75841822549786,558.9576240000001
La0.167Sr0.167Na0.167Ba0.167Eu0.167Bi0.167Fe1O3,-2.019927076,-1.6094379124341005,51.33333333333334,5.763333333333334,1.2150000000000003,1.3383333333333334,0.2955,2.5,5.666666666666667,124.63166666666666,2.666666666666667,32.86666666666667,0.9468430655986124,-0.6149999999999998,13.710799359823556,4.306351183063512,1.6260750000000004,-1.9554670636074325,-52.89685938866744,-0.6035392171627876,4.306351183063512,0.2637103999786036,0.2207970112079701,166.7987138888889,-9.275727168661867,4.825362720666037,1.7911361111111113,51.99187958053984,718.2938388888889
La0.167Sr0.167Ca0.167Pr0.167Gd0.167Y0.167Fe1O3,-1.995509465,-1.791759469228055,46.16666666666666,5.87,1.21,1.32,0.3073333333333333,2.6666666666666665,5.833333333333333,108.94666666666669,2.6666666666666665,33.11666666666667,0.940503885001178,-0.6200000000000001,14.398751055087143,4.446969696969697,1.5972,-2.1680289577659466,-59.33710108926909,-0.6719098009605207,4.446969696969697,0.30397136213437764,0.23282828282828277,143.80960000000005,-10.517628084368683,4.690858465848398,1.7424000000000002,47.36877498585488,639.5169333333334
La0.167Sr0.167Ca0.167Pr0.167Eu0.167Gd0.167Fe1O3,-1.739392022,-1.791759469228055,50.16666666666667,5.778333333333334,1.2066666666666668,1.3066666666666666,0.3155,2.6666666666666665,5.833333333333333,119.455,2.6666666666666665,32.9,0.9358935718394076,-0.6233333333333333,14.746924644493367,4.422193877551021,1.5767111111111112,-2.162056426201853,-58.948886537603,-0.6719098009605207,4.422193877551021,0.27541752124230884,0.24145408163265306,156.08786666666666,-10.353383466356112,4.782939731413983,1.7073777777777777,53.54388703367645,690.2508083333335
La0.200Sr0.200Mg0.200Ba0.200Pr0.200Fe1O3,-2.009168357,-1.8368555699861957,44.400000000000006,5.920000000000001,1.17,1.352,0.2968,2.6,5.6000000000000005,105.816,2.4,33.00000000000001,0.9515686365894273,-0.6600000000000001,13.353154226736544,4.378698224852071,1.58184,-2.149121016883849,-60.61623380954447,-0.7653564874942482,4.378698224852071,0.31186210024948974,0.2195266272189349,143.063232,-10.87418497431828,4.661701736723746,1.8279040000000002,42.81749598958648,626.4307200000001
La0.250Sr0.250K0.250Gd0.250Fe1O3,-2.329161183,-1.3862943611198906,44.5,5.44,1.115,1.4049999999999998,0.25375,2.25,5.75,105.72,2.25,38.85,0.9698946314074648,-0.7150000000000001,14.007545776573972,3.871886120996442,1.5665749999999998,-1.545718212648678,-53.85753592950775,-0.6161308271643958,3.871886120996442,0.3674801362088536,0.1806049822064057,148.53659999999996,-7.541441324492205,4.660794089736088,1.9740249999999995,38.117831132545696,575.1168
La0.167Sr0.167Li0.167Mg0.167Pr0.167Gd0.167Fe1O3,-1.787760921,-2.019992658983094,38.333333333333336,5.090000000000001,1.0583333333333331,1.055,0.26,2.1666666666666665,4.666666666666667,91.5,2.1666666666666665,26.366666666666667,0.8488739109109897,-0.771666666666667,22.454213612313456,4.824644549763034,1.1165416666666663,-2.137825564090441,-53.26047310852091,-0.9323043041460435,4.824644549763034,0.28816029143898,0.24644549763033177,96.5325,-10.28176263422395,4.516338972281476,1.113025,77.92265027281977,465.73500000000007
La0.167Sr0.167K0.167Ba0.167Sm0.167Bi0.167Fe1O3,-1.758833582,-1.6094379124341005,52.50000000000001,5.625,1.1916666666666669,1.3866666666666667,0.2933333333333333,2.5,5.833333333333333,127.05,2.666666666666667,34.583333333333336,0.9635554508100304,-0.6383333333333332,12.970317967327606,4.056490384615384,1.6524444444444448,-1.9179135123173034,-55.65972780501264,-0.6035392171627876,4.056490384615384,0.27220254492981766,0.21153846153846148,176.17600000000002,-9.053088257441816,4.8445807097661735,1.9228444444444446,47.64951029635582,714.65625
La0.167Sr0.167Ba0.167Pr0.167Eu0.167Gd0.167Fe1O3,-1.793190736,-1.791759469228055,56.16666666666667,5.628333333333334,1.1883333333333337,1.3516666666666668,0.3318333333333333,2.833333333333333,6.0,135.66333333333336,2.6666666666666665,35.483333333333334,0.951453378760383,-0.6416666666666664,14.368637873095441,4.163995067817509,1.6062305555555563,-2.129207502599339,-63.57759849977548,-0.6719098009605207,4.163995067817509,0.2615543379444212,0.2454993834771886,183.3716055555556,-10.084619545971904,4.910176326448068,1.8270027777777782,54.935574710860635,763.5584611111113
La0.200Sr0.200Ca0.200Sm0.200Bi0.200Fe1O3,-2.043132597,-1.3862943611198906,52.0,6.062000000000001,1.288,1.282,0.3126,2.6,5.800000000000001,125.19,3.0,27.820000000000004,0.9273644924901322,-0.542,13.203621011144802,4.728549141965679,1.651216,-1.7855471371224192,-38.56670912635536,-0.46209812037329684,4.728549141965679,0.22222222222222227,0.2438377535101404,160.49358,-8.403716417108779,4.829832583271571,1.643524,59.4162945501516,758.9017800000001
La0.167Sr0.167Na0.167K0.167Ca0.167Bi0.167Fe1O3,-1.612627483,-1.6094379124341005,38.0,5.691666666666667,1.1700000000000002,1.3666666666666667,0.2331666666666667,2.0,5.333333333333334,89.61333333333333,2.333333333333333,33.483333333333334,0.9566399810673748,-0.6599999999999999,13.117192147531231,4.164634146341464,1.5990000000000002,-1.8830423575478978,-53.889346101335136,-0.6897591053289003,4.164634146341464,0.37364231513167684,0.170609756097561,122.47155555555555,-9.160384118270757,4.495504118433655,1.8677777777777778,35.10628110445292,510.0492222222223
La0.200Sr0.200Na0.200Mg0.200Nd0.200Fe1O3,-2.074156122,-1.8368555699861957,35.6,5.918000000000001,1.126,1.298,0.2526,2.2,5.2,83.614,2.2,33.34,0.9328968682842568,-0.7040000000000002,15.245494586872686,4.559322033898305,1.4615479999999998,-2.068299371804456,-61.24076470333977,-0.8349343499937253,4.559322033898305,0.39873705360346356,0.1946070878274268,108.530972,-10.870511263178308,4.426210970184939,1.6848040000000002,38.23445664027513,494.8276520000001
La0.200Sr0.200Mg0.200Ba0.200Sm0.200Fe1O3,-2.146437653,-1.8368555699861957,45.0,5.954000000000001,1.124,1.336,0.295,2.6,5.6000000000000005,107.706,2.4,32.52,0.9460362607953026,-0.706,13.637386920733455,4.456586826347306,1.5016640000000003,-2.0646256606644844,-59.73454313595109,-0.7653564874942482,4.456586826347306,0.30193303994206455,0.2208083832335329,143.895216,-10.93663806369781,4.6794052929169885,1.7848960000000003,45.166924836547274,641.2815240000001
Sr0.500Gd0.500Fe1O3,-3.258679245,-0.6931471805599453,51.0,5.92,1.17,1.31,0.295,2.5,6.0,122.435,2.5,31.75,0.9370461501298502,-0.6600000000000001,14.123093771559958,4.519083969465648,1.5327,-0.810982201255136,-22.007422982778262,-0.2772588722239781,4.519083969465648,0.2593212725119451,0.22519083969465647,160.38985,-4.103431308914876,4.807580276915389,1.7161000000000002,54.46176333609271,724.8152
La0.167Sr0.167Li0.167Pr0.167Y0.167Bi0.167Fe1O3,-1.876735753,-1.6094379124341005,46.0,5.041666666666667,1.1483333333333334,1.0716666666666663,0.2793333333333333,2.333333333333333,5.0,110.88833333333334,2.6666666666666665,25.366666666666664,0.8546368023632028,-0.6816666666666666,20.610296255066082,4.704510108864699,1.2306305555555552,-1.8481712027784922,-40.82607504541168,-0.6035392171627877,4.704510108864699,0.2287586611155366,0.26065318818040445,118.83533055555552,-8.11424947518859,4.7085236889426545,1.1484694444444437,90.09624446375241,559.0620138888889
La0.200Sr0.200Mg0.200Ca0.200Nd0.200Fe1O3,-2.0403495,-1.8368555699861957,37.4,6.112000000000001,1.14,1.288,0.2754,2.4,5.4,87.032,2.4,29.520000000000003,0.9294391334129288,-0.6900000000000002,13.815568613759774,4.745341614906833,1.4683199999999998,-2.094015349784263,-54.223976425992504,-0.7653564874942482,4.745341614906833,0.33918558691056166,0.2138198757763975,112.097216,-11.22686124375563,4.466275867118782,1.6589440000000002,40.73159104311451,531.9395840000001
La0.167Sr0.167Ca0.167Nd0.167Eu0.167Gd0.167Fe1O3,-1.676214407,-1.791759469228055,50.333333333333336,5.788333333333334,1.1633333333333336,1.2983333333333336,0.314,2.6666666666666665,5.833333333333333,120.01,2.6666666666666665,32.58333333333333,0.933012126113301,-0.6666666666666665,14.888018146899116,4.458279845956354,1.510394444444445,-2.0844135158686377,-58.38149603901412,-0.6719098009605207,4.458279845956354,0.2715051523484154,0.24184852374839533,155.81298333333336,-10.371301061048392,4.78757507264335,1.685669444444445,54.83512197880399,694.6578833333334
La0.167Sr0.167Na0.167Pr0.167Sm0.167Y0.167Fe1O3,-1.814379935,-1.791759469228055,44.33333333333333,5.623333333333333,1.1616666666666668,1.3383333333333332,0.2841666666666667,2.5,5.666666666666667,104.95,2.5,36.55000000000001,0.9468430655986124,-0.6683333333333332,15.24735446049345,4.201743462017435,1.5546972222222222,-2.0814272500865907,-65.48880860028542,-0.716703787691222,4.201743462017435,0.3482610767031921,0.21232876712328771,140.45808333333332,-10.075660748625761,4.653484046266642,1.7911361111111106,43.78139126207352,590.1688333333333
La0.200Sr0.200Mg0.200Ba0.200Eu0.200Fe1O3,-2.184750673,-1.8368555699861957,45.2,5.960000000000001,1.13,1.328,0.2958,2.6,5.6000000000000005,108.026,2.4,32.36000000000001,0.9432700728982404,-0.7000000000000002,13.817016869918342,4.487951807228916,1.50064,-2.075646794084401,-59.4406462447533,-0.7653564874942482,4.487951807228916,0.2995575139318313,0.2227409638554217,143.458528,-10.947659197117728,4.682371938891558,1.7635840000000003,46.124754771007375,643.83496
Sr0.500Pr0.500Fe1O3,-3.274583851,-0.6931471805599453,48.5,5.58,1.1749999999999998,1.38,0.287,2.5,6.0,114.265,2.5,33.7,0.9612502942291452,-0.6550000000000002,12.823088560739587,4.043478260869565,1.6214999999999997,-0.8144479371579356,-23.359059984870157,-0.2772588722239781,4.043478260869565,0.2949284557826106,0.20797101449275363,157.6857,-3.867761267524495,4.738520312184848,1.9043999999999996,43.47864137664418,637.5987