formula,p Band Center,formula entropy,A_site_Z,A_site_ionization_energy,A_site_eletronegativity,A_site_radius,A_site_lewis_acid_strengths,A_site_g,A_site_p,A_site_mass,A_site_Valence_electron,A_site_Polarization_rate,Tolerance_factor,A_minus_B_electronegativity,polarizability_density,ionic_potential,radius_times_eneg,entropy_times_eneg,entropy_times_polarization,entropy_per_valence,ionization_energy_per_radius,polarization_per_mass,lewis_strength_per_radius,mass_times_radius,entropy_times_ionization,log_mass,radius_squared,mass_per_radius3,mass_times_ionization
La0.333Sr0.333Gd0.333Fe1O3,-1.759686613,-1.0986122886681096,53.0,5.806666666666666,1.2133333333333334,1.3266666666666669,0.3053333333333334,2.6666666666666665,6.0,127.92666666666666,2.6666666666666665,34.16666666666667,0.9428090415820632,-0.6166666666666667,14.632453700537226,4.376884422110551,1.6096888888888892,-1.3329829102506396,-37.53591986282708,-0.4119796082505411,4.376884422110551,0.26708009797279697,0.23015075376884422,169.71604444444446,-6.379275356199488,4.851457183073487,1.760044444444445,54.78676176772854,742.827511111111