formula,p Band Center,formula entropy,A_site_Z,A_site_ionization_energy,A_site_eletronegativity,A_site_radius,A_site_lewis_acid_strengths,A_site_g,A_site_p,A_site_mass,A_site_Valence_electron,A_site_Polarization_rate,Tolerance_factor,A_minus_B_electronegativity,polarizability_density,ionic_potential,radius_times_eneg,entropy_times_eneg,entropy_times_polarization,entropy_per_valence,ionization_energy_per_radius,polarization_per_mass,lewis_strength_per_radius,mass_times_radius,entropy_times_ionization,log_mass,radius_squared,mass_per_radius3,mass_times_ionization
La0.167Sr0.167Na0.167Nd0.167Gd0.167Y0.167Fe1O3,-1.969730815,-1.791759469228055,44.833333333333336,5.718333333333334,1.155,1.32,0.2868333333333333,2.5,5.666666666666667,106.65333333333334,2.5,35.983333333333334,0.940503885001178,-0.675,15.645145207817382,4.332070707070707,1.5246000000000002,-2.0694821869584037,-64.47347823438952,-0.716703787691222,4.332070707070707,0.33738592324040506,0.21729797979797974,140.78240000000002,-10.245877898202428,4.669583699312511,1.7424000000000002,46.37165966367068,609.8793111111112
La0.167Sr0.167Li0.167Gd0.167Y0.167Bi0.167Fe1O3,-1.363266645,-1.6094379124341005,46.83333333333334,5.155000000000001,1.1466666666666667,1.0483333333333331,0.282,2.333333333333333,5.0,113.61166666666668,2.6666666666666665,24.716666666666665,0.8465687543301045,-0.6833333333333333,21.453181916388544,4.917329093799684,1.2020888888888888,-1.8454888062577686,-39.779940402329515,-0.6035392171627877,4.917329093799684,0.21755394839145037,0.2689984101748808,119.10289722222221,-8.29665243859779,4.732786200544332,1.0990027777777773,98.61085985802146,585.6681416666669
La0.167Sr0.167Na0.167Nd0.167Sm0.167Gd0.167Fe1O3,-1.847663614,-1.791759469228055,48.66666666666667,5.621666666666667,1.1466666666666667,1.3133333333333332,0.2943333333333333,2.5,5.666666666666667,116.895,2.5,35.9,0.9381987284202926,-0.6833333333333333,15.847820636089306,4.280456852791879,1.5059555555555555,-2.0545508580481697,-64.32416494528717,-0.716703787691222,4.280456852791879,0.30711322126694895,0.22411167512690353,153.5221,-10.072674482843716,4.761276095963634,1.7248444444444442,51.60253463107687,657.144725
La0.200Sr0.200Na0.200Sm0.200Bi0.200Fe1O3,-2.160694955,-1.3862943611198906,50.2,5.868,1.274,1.292,0.2898,2.4000000000000004,5.6000000000000005,121.772,2.8,31.640000000000004,0.93082222736146,-0.556,14.670635733285632,4.541795665634675,1.6460080000000001,-1.7661390160667405,-43.86235358583335,-0.49510512897138953,4.541795665634675,0.2598298459415958,0.2243034055727554,157.32942400000002,-8.134775311051518,4.802150443790706,1.669264,56.4624732779285,714.5580960000001
La0.200Sr0.200Ba0.200Sm0.200Bi0.200Fe1O3,-2.090130119,-1.3862943611198906,59.2,5.882000000000001,1.266,1.336,0.3322,2.8000000000000003,6.000000000000001,144.64,3.0,30.920000000000005,0.9460362607953026,-0.5640000000000001,12.966420774571908,4.402694610778443,1.6913760000000002,-1.7550486611777816,-42.86422164582702,-0.46209812037329684,4.402694610778443,0.21377212389380537,0.24865269461077844,193.23904,-8.154183432107198,4.974247896643866,1.7848960000000003,60.65533961300389,850.77248
La0.167Sr0.167K0.167Pr0.167Nd0.167Eu0.167Fe1O3,-1.720304542,-1.791759469228055,49.333333333333336,5.38,1.135,1.3716666666666668,0.2908333333333334,2.5,5.833333333333333,117.12333333333336,2.5,38.00000000000001,0.9583688485030386,-0.6950000000000001,14.724407975694435,3.9222357229647624,1.556841666666667,-2.0336469975738423,-68.0868598306661,-0.716703787691222,3.9222357229647624,0.32444431795543155,0.21202916160388824,160.6541722222223,-9.639665944446936,4.763227510645887,1.8814694444444449,45.38346693350661,630.1235333333335
La0.167Sr0.167Na0.167Ca0.167Pr0.167Eu0.167Fe1O3,-1.417088043,-1.791759469228055,41.333333333333336,5.61,1.13,1.3416666666666666,0.2674999999999999,2.333333333333333,5.5,97.07833333333332,2.333333333333333,34.63333333333334,0.9479956438890548,-0.7000000000000002,14.340371520633294,4.18136645962733,1.516083333333333,-2.024688200227702,-62.054602950931645,-0.7678969153834522,4.18136645962733,0.35675657115387926,0.19937888198757758,130.24676388888886,-10.05177062236939,4.575518212739596,1.800069444444444,40.196516841305446,544.6094499999999
La0.167Sr0.167Na0.167Ca0.167Eu0.167Gd0.167Fe1O3,-1.662389342,-1.791759469228055,42.16666666666667,5.723333333333334,1.1283333333333336,1.3183333333333334,0.2701666666666667,2.333333333333333,5.5,99.80166666666668,2.333333333333333,33.98333333333334,0.9399275958559568,-0.7016666666666664,14.831677583624481,4.34134007585335,1.4875194444444448,-2.0217019344456557,-60.889959295933416,-0.7678969153834522,4.34134007585335,0.34050867553982067,0.2049304677623262,131.5718638888889,-10.254836695548569,4.603184883244774,1.7380027777777778,43.55741468293367,571.1982055555557
La0.167Sr0.167Na0.167Ca0.167Pr0.167Sm0.167Fe1O3,-1.736520288,-1.791759469228055,41.16666666666667,5.605,1.125,1.3483333333333334,0.2668333333333333,2.333333333333333,5.5,96.81166666666668,2.333333333333333,34.766666666666666,0.9503008004699404,-0.7050000000000001,14.183102451257911,4.15698393077874,1.516875,-2.0157294028815618,-62.293504213495375,-0.7678969153834522,4.15698393077874,0.3591164976672921,0.19789864029666251,130.53439722222225,-10.042811825023248,4.5727675104361465,1.8180027777777779,39.49443298591651,542.6293916666668
La0.167Sr0.167Li0.167Mg0.167Eu0.167Y0.167Fe1O3,-1.722875808,-2.019992658983094,34.83333333333333,5.135,0.9966666666666668,1.0516666666666667,0.2474999999999999,2.1666666666666665,4.666666666666667,81.95166666666668,2.1666666666666665,26.166666666666668,0.8477213326205472,-0.8333333333333333,22.496454390422883,4.882725832012678,1.0481611111111113,-2.0132593501198173,-52.856474576724295,-0.9323043041460435,4.882725832012678,0.31929389274165665,0.23534072900158465,86.18583611111113,-10.372662303878188,4.4061296425872625,1.106002777777778,70.45688909754674,420.8218083333334
La0.200Sr0.200K0.200Sm0.200Eu0.200Fe1O3,-1.691600916,-1.6094379124341005,47.8,5.384,1.088,1.376,0.273,2.4000000000000004,5.800000000000001,113.59,2.4000000000000004,38.120000000000005,0.959867200280614,-0.742,14.631794409611738,3.9127906976744193,1.497088,-1.7510684487283015,-61.35177322198792,-0.6705991301808751,3.9127906976744193,0.3355929219121402,0.1984011627906977,156.29984,-8.665213720545198,4.73259547424333,1.8933759999999997,43.599830193803705,611.56856
La0.167Sr0.167Li0.167Nd0.167Eu0.167Y0.167Fe1O3,-1.234910196,-1.791759469228055,42.833333333333336,4.781666666666666,0.9683333333333334,1.0916666666666666,0.2653333333333333,2.333333333333333,5.0,101.94000000000004,2.333333333333333,28.86666666666667,0.8615522721058584,-0.8616666666666667,22.188425646470726,4.3801526717557255,1.0570972222222221,-1.7350204193691667,-51.72212334504986,-0.7678969153834522,4.3801526717557255,0.2831731083643973,0.2430534351145038,111.28450000000004,-8.56759652869215,4.624384404911896,1.1917361111111109,78.35640105316027,487.44310000000013
La0.167Sr0.167Na0.167Ca0.167Sm0.167Gd0.167Fe1O3,-1.612111678,-1.791759469228055,42.0,5.718333333333334,1.1233333333333333,1.325,0.2695,2.333333333333333,5.5,99.535,2.333333333333333,34.116666666666674,0.942232752436842,-0.7066666666666668,14.666245737532778,4.315723270440252,1.4884166666666665,-2.012743137099515,-61.12886055849715,-0.7678969153834522,4.315723270440252,0.342760503005643,0.20339622641509436,131.883875,-10.245877898202428,4.600509341105897,1.755625,42.788610732349525,569.1743083333333
La0.167Sr0.167Li0.167Mg0.167Sm0.167Y0.167Fe1O3,-1.632616894,-2.019992658983094,34.666666666666664,5.130000000000001,0.9916666666666668,1.0583333333333331,0.2468333333333333,2.1666666666666665,4.666666666666667,81.68500000000002,2.1666666666666665,26.3,0.8500264892014323,-0.8383333333333333,22.186475869014746,4.8472440944881905,1.0495138888888889,-2.003159386824902,-53.125806931255376,-0.9323043041460435,4.8472440944881905,0.3219685376752157,0.2332283464566929,86.44995833333333,-10.362562340583274,4.402870386478472,1.120069444444444,68.90883199089238,419.04405000000014
La0.167Sr0.167Li0.167Eu0.167Y0.167Bi0.167Fe1O3,-1.711350323,-1.6094379124341005,46.66666666666667,5.075,1.1150000000000002,1.0516666666666667,0.2785,2.333333333333333,5.0,112.73,2.6666666666666665,24.83333333333333,0.8477213326205472,-0.7149999999999999,21.350138243140183,4.8256735340729,1.1726083333333337,-1.7945232723640223,-39.967708158780155,-0.6035392171627877,4.8256735340729,0.2202903693190218,0.2648177496038035,118.55438333333335,-8.16789740560306,4.72499557905644,1.106002777777778,96.91816446238363,572.1047500000001
La0.167Sr0.167Na0.167Nd0.167Sm0.167Eu0.167Fe1O3,-1.59051858,-1.791759469228055,48.5,5.541666666666667,1.115,1.3166666666666669,0.2908333333333334,2.5,5.666666666666667,116.01333333333334,2.5,36.01666666666667,0.9393513067107354,-0.7150000000000001,15.778873476540392,4.20886075949367,1.4680833333333336,-1.9978118081892813,-64.53320355003046,-0.716703787691222,4.20886075949367,0.31045282151476844,0.2208860759493671,152.7508888888889,-9.929333725305472,4.753705127029714,1.7336111111111117,50.82535053007975,642.9072222222222
La0.167Sr0.167Na0.167Ba0.167Pr0.167Y0.167Fe1O3,-1.737320194,-1.791759469228055,43.333333333333336,5.551666666666667,1.1150000000000002,1.4,0.2756666666666666,2.5,5.666666666666667,102.77833333333334,2.333333333333333,37.43333333333334,0.9681657639718008,-0.7149999999999999,13.6418853255588,3.9654761904761906,1.5610000000000002,-1.9978118081892817,-67.0715294647702,-0.7678969153834522,3.9654761904761906,0.36421424749055414,0.1969047619047619,143.88966666666667,-9.947251319997752,4.632574565567002,1.9599999999999997,37.455660835762885,570.5910472222223
La0.167Sr0.167Li0.167Mg0.167Nd0.167Y0.167Fe1O3,-1.506335631,-2.019992658983094,34.333333333333336,5.111666666666667,0.9866666666666668,1.0633333333333337,0.2468333333333333,2.1666666666666665,4.666666666666667,80.665,2.1666666666666665,26.383333333333336,0.8517553566370963,-0.8433333333333333,21.944282193703653,4.807210031347961,1.049155555555556,-1.9930594235299866,-53.29413965283731,-0.9323043041460435,4.807210031347961,0.32707287340647534,0.23213166144200614,85.77378333333337,-10.32552914183525,4.390304776118107,1.1306777777777786,67.09294465527879,412.33259166666676
La0.167Sr0.167Li0.167Ca0.167Pr0.167Bi0.167Fe1O3,-1.794342699,-1.6094379124341005,42.83333333333333,5.023333333333333,1.1116666666666668,1.0816666666666668,0.2619999999999999,2.1666666666666665,4.833333333333333,102.75,2.5,23.583333333333336,0.8580945372345307,-0.7183333333333333,18.63480490114684,4.6440677966101696,1.202452777777778,-1.7891584793225752,-37.955910768237544,-0.6437751649736402,4.6440677966101696,0.22952149229521496,0.24221879815100142,111.14125000000001,-8.084743113460632,4.632298853376344,1.170002777777778,81.18980368591536,516.1475
La0.167Sr0.167K0.167Ca0.167Pr0.167Eu0.167Fe1O3,-1.559199191,-1.791759469228055,42.66666666666667,5.476666666666668,1.1116666666666668,1.3833333333333333,0.266,2.333333333333333,5.666666666666667,99.76333333333334,2.333333333333333,36.21666666666667,0.9624028725195878,-0.7183333333333333,13.68131839303797,3.9590361445783144,1.5378055555555556,-1.991839276625188,-64.89155544387606,-0.7678969153834522,3.9590361445783144,0.36302582779244214,0.19228915662650603,138.00594444444445,-9.812869359805651,4.602800714339357,1.913611111111111,37.68690089141587,546.3705222222223
La0.167Sr0.167Li0.167Sm0.167Eu0.167Bi0.167Fe1O3,-1.601278304,-1.6094379124341005,50.5,4.9783333333333335,1.106666666666667,1.0450000000000002,0.286,2.333333333333333,5.0,122.97166666666668,2.6666666666666665,24.750000000000004,0.845416176039662,-0.7233333333333332,21.688340950358995,4.763955342902711,1.1564666666666672,-1.781111289760405,-39.83358833274399,-0.6035392171627877,4.763955342902711,0.20126587425287668,0.27368421052631575,128.5053916666667,-8.012318407401096,4.811953976533728,1.0920250000000002,107.75965389497225,612.1939472222223
La0.167Sr0.167K0.167Ca0.167Pr0.167Sm0.167Fe1O3,-1.592207809,-1.791759469228055,42.5,5.471666666666668,1.106666666666667,1.39,0.2653333333333333,2.333333333333333,5.666666666666667,99.49666666666668,2.333333333333333,36.35,0.964708029100473,-0.7233333333333332,13.535054674546169,3.936450839328538,1.538266666666667,-1.982880479279048,-65.1304567064398,-0.7678969153834522,3.936450839328538,0.3653388723240309,0.1908872901678657,138.3003666666667,-9.803910562459508,4.600124142765861,1.9320999999999997,37.0479456194891,544.4125944444446
La0.200Sr0.200Ca0.200Ba0.200Bi0.200Fe1O3,-1.85698752,-1.3862943611198906,50.8,5.976000000000001,1.2320000000000002,1.356,0.3024,2.6,5.800000000000001,122.584,2.8,28.880000000000003,0.9529517305379585,-0.5979999999999999,11.582921693622595,4.407079646017699,1.6705920000000003,-1.7079146528997056,-40.03618114914244,-0.49510512897138953,4.407079646017699,0.23559355217646677,0.22300884955752212,166.223904,-8.284495102052468,4.808796509275875,1.8387360000000001,49.16485016935707,732.5619840000002
La0.200Sr0.200Na0.200Pr0.200Bi0.200Fe1O3,-2.219625626,-1.3862943611198906,49.6,5.8340000000000005,1.3199999999999998,1.308,0.2916,2.4000000000000004,5.6000000000000005,119.882,2.8,32.120000000000005,0.9363546031555848,-0.5100000000000002,14.353317927986911,4.460244648318043,1.7265599999999999,-1.8299085566782554,-44.52777487917089,-0.49510512897138953,4.460244648318043,0.2679301312957742,0.22293577981651377,156.805656,-8.087641302773442,4.786507925659314,1.7108640000000002,53.571122660116025,699.3915880000001
La0.167Sr0.167Na0.167K0.167Pr0.167Y0.167Fe1O3,-1.677054554,-1.791759469228055,37.16666666666666,5.406666666666667,1.1033333333333335,1.405,0.2388333333333333,2.1666666666666665,5.5,86.40666666666667,2.1666666666666665,39.61666666666667,0.9698946314074648,-0.7266666666666666,14.283970961354061,3.8481613285883753,1.5501833333333337,-1.9769079477149543,-70.98353763925144,-0.826965908874487,3.8481613285883753,0.45849085718694543,0.16998813760379594,121.40136666666668,-9.687446196959685,4.459064833327119,1.9740250000000001,31.154320173346232,467.1720444444445
La0.167Sr0.167Na0.167K0.167Pr0.167Eu0.167Fe1O3,-1.633943341,-1.791759469228055,41.16666666666667,5.315,1.1,1.3916666666666666,0.247,2.1666666666666665,5.5,96.915,2.1666666666666665,39.400000000000006,0.9652843182456944,-0.73,14.618087143150683,3.819161676646707,1.5308333333333335,-1.9709354161508605,-70.59532308758537,-0.826965908874487,3.819161676646707,0.40654181499251923,0.17748502994011978,134.873375,-9.523201578947113,4.573834305678239,1.936736111111111,35.95715521518905,515.1032250000001
La0.167Sr0.167Na0.167Ba0.167Nd0.167Gd0.167Fe1O3,-1.600206522,-1.791759469228055,47.66666666666667,5.550000000000001,1.1,1.375,0.2858333333333333,2.5,5.666666666666667,114.72333333333334,2.333333333333333,36.78333333333334,0.9595214267934812,-0.73,14.14956173303281,4.036363636363637,1.5125000000000002,-1.9709354161508605,-65.90688580977196,-0.7678969153834522,4.036363636363637,0.3206264346108028,0.20787878787878783,157.74458333333334,-9.944265054215707,4.742523432682091,1.890625,44.13098923115452,636.7145000000002
La0.167Sr0.167K0.167Ca0.167Nd0.167Gd0.167Fe1O3,-1.434016352,-1.791759469228055,43.00000000000001,5.566666666666667,1.1,1.3716666666666668,0.268,2.333333333333333,5.666666666666667,101.2,2.333333333333333,35.78333333333334,0.9583688485030386,-0.73,13.865484177112258,4.058323207776428,1.5088333333333337,-1.9709354161508605,-64.11512634054391,-0.7678969153834522,4.058323207776428,0.3535902503293808,0.19538274605103279,138.81266666666667,-9.974127712036173,4.617098756853365,1.8814694444444449,39.21342334579675,563.3466666666667
La0.167Sr0.167Li0.167Nd0.167Sm0.167Bi0.167Fe1O3,-1.566925762,-1.6094379124341005,50.00000000000001,4.955000000000001,1.096666666666667,1.0566666666666666,0.2853333333333334,2.333333333333333,5.0,121.68500000000002,2.6666666666666665,24.966666666666672,0.849450200056211,-0.7333333333333332,21.161504470269726,4.689274447949527,1.1588111111111112,-1.765016910636064,-40.18229988043805,-0.6035392171627877,4.689274447949527,0.2051745627371218,0.270031545741325,128.58048333333335,-7.974764856110969,4.801435738494055,1.1165444444444443,103.13902555933663,602.9491750000002
La0.167Sr0.167K0.167Ba0.167Pr0.167Y0.167Fe1O3,-1.577894184,-1.791759469228055,44.66666666666666,5.418333333333333,1.096666666666667,1.4416666666666669,0.2741666666666666,2.5,5.833333333333333,105.46333333333334,2.333333333333333,39.01666666666667,0.9825729926023338,-0.7333333333333332,13.021337396385315,3.7583815028901726,1.5810277777777784,-1.9649628845867673,-69.90848195771463,-0.7678969153834522,3.7583815028901726,0.36995480261702335,0.1901734104046242,152.04297222222226,-9.70835005743401,4.658363341163344,2.0784027777777783,35.19710327930243,571.4354944444444
La0.200Sr0.200K0.200Ca0.200Bi0.200Fe1O3,-1.92141305,-1.3862943611198906,43.400000000000006,5.8020000000000005,1.218,1.362,0.2582,2.2,5.6000000000000005,102.938,2.6,31.500000000000004,0.9550263714607552,-0.6120000000000001,12.46749581355739,4.259911894273128,1.658916,-1.6885065318440267,-43.66827237527656,-0.5331901388922656,4.259911894273128,0.3060094425770853,0.1895741556534508,140.201556,-8.043279883217606,4.634126865242395,1.8550440000000004,40.74219314463398,597.2462760000001
La0.167Sr0.167Na0.167Ca0.167Nd0.167Y0.167Fe1O3,-1.589225573,-1.791759469228055,37.5,5.711666666666667,1.09,1.346666666666667,0.2578333333333333,2.333333333333333,5.5,87.125,2.333333333333333,34.53333333333334,0.949724511324719,-0.74,14.140285217620864,4.241336633663366,1.467866666666667,-1.95301782145858,-61.87542700400884,-0.7678969153834522,4.241336633663366,0.3963653754184601,0.1914603960396039,117.32833333333335,-10.23393283507424,4.467343869080688,1.8135111111111117,35.67487498798893,497.62895833333334
La0.200Sr0.200Pr0.200Sm0.200Y0.200Fe1O3,-2.070693783,-1.6094379124341005,51.0,5.720000000000001,1.208,1.328,0.3194,2.8000000000000003,6.000000000000001,121.342,2.8000000000000003,35.18,0.9432700728982404,-0.6220000000000001,15.02109559591246,4.307228915662651,1.604224,-1.9442009982203934,-56.620025759431655,-0.5747992544407501,4.307228915662651,0.2899243460631933,0.24051204819277108,161.142176,-9.205984859123056,4.798613004989161,1.7635840000000003,51.81039743602074,694.0762400000001
La0.167Sr0.167Ca0.167Ba0.167Sm0.167Eu0.167Fe1O3,-1.866731133,-1.791759469228055,49.333333333333336,5.65,1.085,1.3650000000000002,0.3013333333333334,2.6666666666666665,5.833333333333333,117.71,2.5,33.63333333333333,0.9560636919221536,-0.7450000000000001,13.224277604585934,4.139194139194139,1.4810250000000003,-1.9440590241124396,-60.262843481703584,-0.716703787691222,4.139194139194139,0.2857304675332031,0.22075702075702078,160.67415000000003,-10.123441001138511,4.768223972424389,1.8632250000000006,46.28235035190715,665.0615
La0.167Sr0.167K0.167Ca0.167Eu0.167Y0.167Fe1O3,-1.618711444,-1.791759469228055,39.333333333333336,5.601666666666667,1.0816666666666668,1.3766666666666665,0.257,2.333333333333333,5.666666666666667,91.09666666666668,2.333333333333333,35.9,0.9600977159387024,-0.7483333333333333,13.759671251032922,4.0690072639225185,1.4890944444444445,-1.9380864925483463,-64.32416494528717,-0.7678969153834522,4.0690072639225185,0.39408686743020227,0.18668280871670706,125.40974444444444,-10.036839293459154,4.511921213768461,1.8952111111111105,34.91532549855884,510.29316111111115
La0.167Sr0.167Li0.167Ca0.167Eu0.167Bi0.167Fe1O3,-1.623265708,-1.6094379124341005,43.5,5.056666666666668,1.0783333333333336,1.061666666666667,0.2611666666666666,2.1666666666666665,4.833333333333333,104.59166666666668,2.5,23.05,0.8511790674918751,-0.7516666666666665,19.262222000373843,4.762951334379906,1.1448305555555562,-1.7355105489081055,-37.097543881606015,-0.6437751649736402,4.762951334379906,0.22038084614771727,0.24599686028257445,111.04148611111115,-8.138391043875105,4.650063879878401,1.1271361111111118,87.40424740661321,528.8851944444447