formula,p Band Center,formula entropy,A_site_Z,A_site_ionization_energy,A_site_eletronegativity,A_site_radius,A_site_lewis_acid_strengths,A_site_g,A_site_p,A_site_mass,A_site_Valence_electron,A_site_Polarization_rate,Tolerance_factor,A_minus_B_electronegativity,polarizability_density,ionic_potential,radius_times_eneg,entropy_times_eneg,entropy_times_polarization,entropy_per_valence,ionization_energy_per_radius,polarization_per_mass,lewis_strength_per_radius,mass_times_radius,entropy_times_ionization,log_mass,radius_squared,mass_per_radius3,mass_times_ionization
La0.167Sr0.167Mg0.167Pr0.167Nd0.167Bi0.167Fe1O3,-2.342580172,-1.7968491076688844,51.50000000000001,6.201666666666668,1.3533333333333333,1.2416666666666667,0.3308333333333333,2.6666666666666665,5.666666666666667,124.16166666666668,3.0,28.5,0.9134182951757764,-0.4766666666666668,14.887774871982609,4.9946308724832225,1.680388888888889,-2.4317357923785567,-51.210199568563205,-0.5989497025562948,4.9946308724832225,0.2295394445413909,0.2664429530201342,154.1674027777778,-11.143459216059867,4.821584479884333,1.5417361111111112,64.8593312653853,770.0092694444446
La0.167Sr0.167Na0.167Mg0.167Sm0.167Bi0.167Fe1O3,-2.102172278,-1.7968491076688844,43.83333333333334,6.165,1.2800000000000002,1.2483333333333333,0.2855,2.333333333333333,5.333333333333334,105.52833333333334,2.666666666666667,29.500000000000004,0.9157234517566616,-0.5499999999999998,15.164577468071458,4.938584779706275,1.597866666666667,-2.2999668578161723,-53.007048676232095,-0.6738184153758315,4.938584779706275,0.2795457775952746,0.22870493991989319,131.7345361111111,-11.077574748778673,4.6589794792609585,1.558336111111111,54.247206302027145,650.582175
La0.167Sr0.167Mg0.167Nd0.167Gd0.167Bi0.167Fe1O3,-2.36042034,-1.7968491076688844,52.333333333333336,6.315000000000001,1.3516666666666668,1.2183333333333335,0.3335,2.6666666666666665,5.666666666666667,126.885,3.0,27.85,0.905350247142678,-0.4783333333333333,15.400216269151885,5.183310533515733,1.646780555555556,-2.4287410438657755,-50.04224764857843,-0.5989497025562948,5.183310533515733,0.21949008945107776,0.273734610123119,154.58822500000002,-11.347102114929008,4.843281164424088,1.4843361111111115,70.1636065102814,801.2787750000002
La0.167Sr0.167Mg0.167Sm0.167Eu0.167Bi0.167Fe1O3,-2.428931291,-1.7968491076688844,52.50000000000001,6.253333333333334,1.3250000000000002,1.2166666666666668,0.33,2.6666666666666665,5.666666666666667,127.02333333333334,3.0,27.883333333333333,0.9047739579974567,-0.5049999999999999,15.482099753995321,5.13972602739726,1.6120833333333338,-2.3808250676612723,-50.10214261883406,-0.5989497025562948,5.13972602739726,0.2195134752145275,0.27123287671232876,154.5450555555556,-11.23629641995609,4.844370796616968,1.480277777777778,70.52915425289895,794.3192444444445
La0.167Sr0.167Mg0.167Nd0.167Gd0.167Y0.167Fe1O3,-1.959920826,-2.019992658983094,45.0,6.136666666666668,1.2183333333333335,1.26,0.3128333333333333,2.6666666666666665,5.666666666666667,106.87333333333336,2.6666666666666665,31.883333333333333,0.919757475773211,-0.6116666666666666,15.93867019666969,4.870370370370371,1.5351000000000001,-2.461024389527737,-64.40409927724431,-0.7574972471186603,4.870370370370371,0.298328239036866,0.24828042328042324,134.66040000000004,-12.396021617292922,4.671644332593418,1.5876000000000001,53.42662246164389,655.8460222222225
La0.167Sr0.167Mg0.167Pr0.167Nd0.167Eu0.167Fe1O3,-1.956419947,-2.019992658983094,48.16666666666667,5.931666666666668,1.2166666666666666,1.27,0.3183333333333333,2.6666666666666665,5.666666666666667,114.65833333333336,2.6666666666666665,32.31666666666667,0.9232152106445388,-0.6133333333333335,15.776671973291453,4.670603674540684,1.5451666666666666,-2.4576577350960975,-65.27942942947033,-0.7574972471186603,4.670603674540684,0.2818518787702594,0.2506561679790026,145.61608333333336,-11.98192312220139,4.741956691645771,1.6129,55.97504633329477,680.1150138888893
La0.167Sr0.167Na0.167Mg0.167Pr0.167Gd0.167Fe1O3,-2.204630897,-2.019992658983094,40.16666666666667,5.946666666666667,1.2133333333333336,1.2866666666666666,0.278,2.333333333333333,5.333333333333334,95.33166666666668,2.333333333333333,33.60000000000001,0.9289781020967518,-0.6166666666666665,15.773974250030294,4.6217616580310885,1.5611555555555559,-2.4509244262328216,-67.87175334183198,-0.8657111395641833,4.6217616580310885,0.3524537142257732,0.21606217616580314,122.66007777777779,-12.012223012086134,4.55736203948144,1.655511111111111,44.754739738466405,566.9056444444445
La0.167Sr0.167Mg0.167Ba0.167Pr0.167Bi0.167Fe1O3,-2.295133466,-1.7968491076688844,50.833333333333336,6.148333333333334,1.3116666666666668,1.2983333333333336,0.3223333333333333,2.6666666666666665,5.666666666666667,123.01,2.833333333333333,29.3,0.933012126113301,-0.5183333333333333,13.387793300382942,4.735558408215661,1.702980555555556,-2.35686707955902,-52.64767885469831,-0.6341820380007828,4.735558408215661,0.23819201690919437,0.24826700898587928,159.70798333333337,-11.04762726365086,4.8122656528806935,1.685669444444445,56.20588579795582,756.3064833333335
La0.167Sr0.167Mg0.167Ba0.167Eu0.167Bi0.167Fe1O3,-2.052097589,-1.7968491076688844,51.50000000000001,6.181666666666668,1.278333333333333,1.278333333333333,0.3214999999999999,2.6666666666666665,5.666666666666667,124.85166666666667,2.833333333333333,28.76666666666667,0.9260966563706452,-0.551666666666667,13.770737516540889,4.835723598435465,1.6341361111111106,-2.29697210930339,-51.68935933060825,-0.6341820380007828,4.835723598435465,0.23040674934255317,0.2514993481095176,159.6020472222222,-11.10752223390649,4.827126365989237,1.6341361111111106,59.767075208667116,771.7913861111114
La0.167Sr0.167K0.167Mg0.167Eu0.167Bi0.167Fe1O3,-2.170295969,-1.7968491076688844,45.33333333333334,6.036666666666667,1.2666666666666668,1.2833333333333334,0.2846666666666667,2.333333333333333,5.5,108.48,2.666666666666667,30.950000000000003,0.9278255238063092,-0.5633333333333332,14.643410224452557,4.703896103896104,1.6255555555555559,-2.2760088697139205,-55.61247988235198,-0.6738184153758315,4.703896103896104,0.28530604719764013,0.2218181818181818,139.216,-10.8469791132945,4.686565824192085,1.6469444444444448,51.32527111950285,654.8576
La0.167Sr0.167Mg0.167Pr0.167Eu0.167Gd0.167Fe1O3,-2.011358323,-2.019992658983094,48.833333333333336,6.035000000000001,1.2583333333333333,1.255,0.3225,2.6666666666666665,5.666666666666667,116.82666666666668,2.6666666666666665,31.98333333333333,0.9180286083375468,-0.5716666666666668,16.180522693699526,4.808764940239045,1.579208333333333,-2.54182409588706,-64.60609854314262,-0.7574972471186603,4.808764940239045,0.27376740470212274,0.2569721115537849,146.61746666666667,-12.190655696962976,4.760691354837533,1.5750249999999997,59.10317450430235,705.0489333333336
La0.167Sr0.167Mg0.167Pr0.167Nd0.167Gd0.167Fe1O3,-1.990172546,-2.019992658983094,48.33333333333334,6.011666666666668,1.2483333333333333,1.2666666666666668,0.3218333333333333,2.6666666666666665,5.666666666666667,115.54,2.6666666666666665,32.2,0.9220626323540962,-0.5816666666666668,15.844146377022886,4.746052631578947,1.5812222222222223,-2.521624169297229,-65.04376361925564,-0.7574972471186603,4.746052631578947,0.278691362298771,0.254078947368421,146.35066666666668,-12.143522534920036,4.7496167903531195,1.6044444444444448,56.85194634786411,694.5879666666668
La0.200Sr0.200Mg0.200Sm0.200Bi0.200Fe1O3,-2.458098063,-1.5491734975344142,50.4,6.370000000000001,1.35,1.22,0.321,2.6,5.6000000000000005,122.036,3.0,26.72,0.9059265362878994,-0.48,14.714888030275661,5.221311475409837,1.647,-2.0913842216714595,-41.39391585411955,-0.5163911658448047,5.221311475409837,0.21895178471926316,0.26311475409836066,148.88392,-9.86823517929422,4.804316083172349,1.4884,67.20606570594015,777.3693200000001
La0.167Sr0.167Mg0.167Pr0.167Nd0.167Sm0.167Fe1O3,-1.709570674,-2.019992658983094,48.0,5.926666666666668,1.2116666666666664,1.2766666666666666,0.3176666666666666,2.6666666666666665,5.666666666666667,114.39166666666668,2.6666666666666665,32.45,0.925520367225424,-0.6183333333333336,15.594883810150417,4.6422976501305495,1.5468944444444441,-2.447557771801182,-65.54876178400141,-0.7574972471186603,4.6422976501305495,0.2836745100896044,0.24882506527415138,146.0400277777778,-11.971823158906473,4.739628232469614,1.6298777777777778,54.974568582931376,677.9612777777779
La0.167Sr0.167Mg0.167Sm0.167Eu0.167Y0.167Fe1O3,-1.693898753,-2.019992658983094,45.16666666666666,6.075,1.1916666666666669,1.2583333333333333,0.3093333333333333,2.6666666666666665,5.666666666666667,107.01166666666668,2.6666666666666665,31.916666666666664,0.9191811866279896,-0.6383333333333332,16.01881641649852,4.827814569536424,1.499513888888889,-2.407157918621521,-64.47143236587708,-0.7574972471186603,4.827814569536424,0.2982540844456211,0.2458278145695364,134.65634722222225,-12.271455403322298,4.672937862786015,1.5834027777777777,53.70862379394887,650.0958750000001
La0.167Sr0.167Nd0.167Gd0.167Y0.167Bi0.167Fe1O3,-2.045203774,-1.6094379124341005,56.833333333333336,6.076666666666667,1.336666666666667,1.26,0.3438333333333334,2.833333333333333,6.0,137.65166666666667,3.166666666666666,30.550000000000004,0.919757475773211,-0.4933333333333332,15.272128839778123,4.822751322751323,1.6842000000000004,-2.151282009620248,-49.168328224861774,-0.5082435512949792,4.822751322751323,0.22193701492898743,0.2728835978835979,173.4411,-9.780017714557884,4.924726339518705,1.5876000000000001,68.81289650878968,836.4632944444445
La0.167Sr0.167Na0.167Mg0.167Gd0.167Y0.167Fe1O3,-1.776490753,-2.019992658983094,36.833333333333336,6.071666666666666,1.1833333333333336,1.28,0.269,2.333333333333333,5.333333333333334,86.665,2.333333333333333,33.28333333333334,0.9266729455158664,-0.6466666666666665,15.87073008219401,4.743489583333333,1.514666666666667,-2.3903246464633283,-67.23208899982066,-0.8657111395641833,4.743489583333333,0.38404584703551997,0.21015625000000002,110.9312,-12.26472209445902,4.462050111393274,1.6384,41.32509231567382,526.2009916666667
La0.167Sr0.167Mg0.167Ba0.167Pr0.167Y0.167Fe1O3,-1.952676941,-2.019992658983094,43.49999999999999,5.970000000000001,1.1783333333333337,1.34,0.3016666666666666,2.6666666666666665,5.666666666666667,102.99833333333336,2.5,33.33333333333333,0.947419354743834,-0.6516666666666664,13.853654427794194,4.455223880597015,1.5789666666666673,-2.380224683168413,-67.33308863276979,-0.8079970635932376,4.455223880597015,0.32362983219793184,0.22512437810945266,138.01776666666672,-12.059356174129073,4.634712806868945,1.7956000000000003,42.80709949916269,614.9000500000002
La0.167Sr0.167Mg0.167Ba0.167Sm0.167Gd0.167Fe1O3,-1.75942323,-2.019992658983094,48.16666666666667,5.986666666666667,1.1683333333333334,1.31,0.3118333333333333,2.6666666666666665,5.666666666666667,115.96333333333337,2.5,32.60000000000001,0.9370461501298502,-0.6616666666666666,14.501192344971804,4.56997455470738,1.530516666666667,-2.3600247565785817,-65.85176068284889,-0.8079970635932376,4.56997455470738,0.28112334358561614,0.23804071246819333,151.91196666666673,-12.093022718445457,4.753274049184751,1.7161000000000002,51.58302458990021,694.2338222222224
La0.167Sr0.167K0.167Mg0.167Gd0.167Y0.167Fe1O3,-1.681362658,-2.019992658983094,38.16666666666667,5.9383333333333335,1.1650000000000005,1.3216666666666663,0.2675,2.333333333333333,5.5,89.35000000000001,2.333333333333333,34.866666666666674,0.9410801741463992,-0.6649999999999996,15.102353063596818,4.493064312736445,1.539741666666667,-2.3532914477153057,-70.43041070987724,-0.8657111395641833,4.493064312736445,0.3902257041596717,0.20239596469104673,118.09091666666664,-11.99538973992794,4.492561241605437,1.7468027777777768,38.701584499972526,530.5900833333334
La0.250Sr0.250Li0.250Y0.250Fe1O3,-2.243589091,-1.3862943611198906,33.5,4.3725,0.8674999999999999,1.02,0.2115,2.0,4.5,78.86,2.0,26.125,0.8367718388613422,-0.9625000000000001,24.618170990041534,4.286764705882352,0.8848499999999999,-1.202610358271505,-36.21694018425714,-0.6931471805599453,4.286764705882352,0.3312832868374334,0.20735294117647057,80.4372,-6.061572093996721,4.367674128449481,1.0404,74.31153930237991,344.81534999999997
La0.167Sr0.167Na0.167Mg0.167Ca0.167Pr0.167Fe1O3,-1.812853545,-2.019992658983094,32.833333333333336,5.94,1.1483333333333334,1.3133333333333332,0.249,2.166666666666667,5.166666666666667,75.80333333333333,2.166666666666667,32.15,0.9381987284202926,-0.6816666666666666,14.192407616999198,4.522842639593909,1.5081444444444445,-2.31962490339892,-64.94276398630647,-0.9323043041460433,4.522842639593909,0.4241238292071589,0.18959390862944164,99.55504444444443,-11.99875639435958,4.328142267055228,1.7248444444444442,33.462886637447255,450.2718
La0.167Sr0.167Mg0.167Ba0.167Sm0.167Y0.167Fe1O3,-1.836330022,-2.019992658983094,44.0,5.998333333333334,1.14,1.3266666666666669,0.3001666666666667,2.6666666666666665,5.666666666666667,104.57333333333337,2.5,32.93333333333334,0.9428090415820632,-0.6900000000000002,14.104257810859297,4.521356783919598,1.5124000000000002,-2.3027916312407273,-66.52509156917657,-0.8079970635932376,4.521356783919598,0.3149305112839474,0.22625628140703516,138.7339555555556,-12.116589299466927,4.6498885796763565,1.760044444444445,44.78530121885404,627.2657111111114
La0.250Sr0.250Li0.250Ba0.250Fe1O3,-1.70701719,-1.3862943611198906,37.75,4.12,0.785,1.1025,0.21,2.0,4.5,90.965,1.75,27.325,0.8652981515497971,-1.045,20.390335713095848,3.7369614512471654,0.8654625,-1.0882410734791141,-37.88049341760101,-0.7921682063542231,3.7369614512471654,0.30039025999010605,0.19047619047619047,100.28891250000001,-5.711532767813949,4.510474817148767,1.21550625,67.87948355505083,374.7758
La0.167Sr0.167Li0.167Mg0.167Y0.167Bi0.167Fe1O3,-1.735937524,-1.7968491076688844,38.16666666666667,5.405,1.1333333333333335,1.0233333333333332,0.2599999999999999,2.1666666666666665,4.666666666666667,91.455,2.5,22.35,0.8379244171517847,-0.6966666666666665,20.855766948753782,5.281758957654724,1.1597777777777778,-2.036428988691403,-40.15957755639957,-0.7187396430675538,5.281758957654724,0.24438248318845335,0.25407166123778496,93.58894999999998,-9.71196942695032,4.515847048027889,1.0472111111111109,85.34067858157839,494.314275
La0.167Sr0.167K0.167Mg0.167Eu0.167Y0.167Fe1O3,-1.828168905,-2.019992658983094,38.0,5.858333333333333,1.1333333333333335,1.325,0.264,2.333333333333333,5.5,88.46833333333335,2.333333333333333,34.98333333333334,0.942232752436842,-0.6966666666666665,15.038812800723646,4.421383647798742,1.501666666666667,-2.2893250135141736,-70.66607652009192,-0.8657111395641833,4.421383647798742,0.3954333942465289,0.19924528301886793,117.22054166666668,-11.833790327209293,4.482644672540102,1.755625,38.03121592545077,518.2769861111112
La0.167Sr0.167K0.167Mg0.167Ca0.167Pr0.167Fe1O3,-1.643417004,-2.019992658983094,34.166666666666664,5.806666666666668,1.13,1.355,0.2475,2.166666666666667,5.333333333333334,78.48833333333333,2.166666666666667,33.733333333333334,0.9526059570508256,-0.7000000000000002,13.559428087574812,4.285362853628538,1.5311499999999998,-2.2825917046508963,-68.14108569636305,-0.9323043041460433,4.285362853628538,0.4297878665619094,0.18265682656826568,106.35169166666667,-11.729424039828503,4.362949993785786,1.836025,31.54911793123323,455.755588888889
La0.167Sr0.167K0.167Mg0.167Sm0.167Y0.167Fe1O3,-1.854718792,-2.019992658983094,37.833333333333336,5.8533333333333335,1.1283333333333336,1.3316666666666668,0.2633333333333333,2.333333333333333,5.5,88.20166666666667,2.333333333333333,35.116666666666674,0.9445379090177272,-0.7016666666666664,14.87053859311856,4.39549436795995,1.5025638888888895,-2.2792250502192584,-70.93540887462301,-0.8657111395641833,4.39549436795995,0.39814062470474865,0.19774718397997493,117.45521944444445,-11.823690363914379,4.479625859281678,1.7733361111111114,37.34996549057557,516.2737555555556
La0.167Sr0.167K0.167Mg0.167Ca0.167Gd0.167Fe1O3,-1.717303635,-2.019992658983094,35.0,5.92,1.1283333333333336,1.3316666666666668,0.2501666666666667,2.166666666666667,5.333333333333334,81.21166666666666,2.166666666666667,33.083333333333336,0.9445379090177272,-0.7016666666666664,14.009501237465752,4.445556946182728,1.5025638888888895,-2.2792250502192584,-66.82809046802403,-0.9323043041460433,4.445556946182728,0.4073716830504649,0.18785982478097624,108.14686944444445,-11.958356541179917,4.397058915007833,1.7733361111111114,34.389973138437966,480.77306666666664
La0.333Sr0.333Eu0.333Fe1O3,-2.735745337,-1.0986122886681096,52.66666666666666,5.646666666666667,1.15,1.3333333333333333,0.2983333333333333,2.6666666666666665,6.0,126.16333333333334,2.6666666666666665,34.4,0.9451141981629484,-0.6800000000000002,14.512500000000003,4.235000000000001,1.5333333333333332,-1.2634041319683258,-37.79226273018297,-0.4119796082505411,4.235000000000001,0.27266242172844724,0.22374999999999998,168.21777777777777,-6.2034973900125925,4.837577363781117,1.7777777777777777,53.22515625000002,712.4022888888891
La0.167Sr0.167Li0.167Mg0.167Sm0.167Bi0.167Fe1O3,-1.710002269,-1.7968491076688844,42.0,5.308333333333335,1.125,1.0166666666666668,0.2675,2.1666666666666665,4.666666666666667,101.69666666666669,2.5,22.266666666666666,0.8356192605708997,-0.7050000000000001,21.189438763596943,5.221311475409837,1.1437500000000003,-2.021455246127495,-40.00984013076049,-0.7187396430675538,5.221311475409837,0.2189517847192631,0.2631147540983606,103.39161111111115,-9.538274013208998,4.621994526378394,1.0336111111111115,96.77673461655378,539.8398055555558
La0.167Sr0.167K0.167Mg0.167Sm0.167Eu0.167Fe1O3,-2.055389984,-2.019992658983094,41.833333333333336,5.761666666666667,1.125,1.3183333333333334,0.2715,2.333333333333333,5.5,98.71,2.333333333333333,34.900000000000006,0.9399275958559568,-0.7050000000000001,15.23174735660111,4.370417193426043,1.483125,-2.2724917413559806,-70.49774379851,-0.8657111395641833,4.370417193426043,0.35356093607537237,0.20594184576485464,130.13268333333332,-11.638524370174261,4.5921862584297966,1.7380027777777778,43.08096795329786,568.7341166666666
La0.333Sr0.333Y0.333Fe1O3,-2.781325277,-1.0986122886681096,44.66666666666666,5.83,1.1566666666666665,1.36,0.282,2.6666666666666665,6.0,105.14666666666668,2.6666666666666665,34.833333333333336,0.9543348244864894,-0.6733333333333336,13.847721181898363,4.286764705882352,1.5730666666666666,-1.2707282138927798,-38.268328055272484,-0.4119796082505411,4.286764705882352,0.3312832868374334,0.20735294117647055,142.99946666666668,-6.4049096429350785,4.655356200901262,1.8496000000000004,41.800240857588705,613.0050666666667
La0.250Sr0.250Mg0.250Gd0.250Fe1O3,-2.05624043,-1.5990147122062974,42.75,6.2675,1.2375,1.2525,0.295,2.5,5.5,102.0225,2.5,30.325,0.9171641746197148,-0.5925,15.43361299520393,5.003992015968064,1.54996875,-1.9787807063552931,-48.49012114765597,-0.639605884882519,5.003992015968064,0.2972383542845941,0.23552894211576847,127.78318124999998,-10.02182470875297,4.625193377193558,1.5687562499999999,51.92335636613991,639.4260187499999
La0.167Sr0.167Li0.167Mg0.167Nd0.167Bi0.167Fe1O3,-1.899722366,-1.7968491076688844,41.66666666666666,5.290000000000001,1.12,1.0216666666666667,0.2675,2.1666666666666665,4.666666666666667,100.67666666666668,2.5,22.35,0.8373481280065636,-0.71,20.95800091893775,5.177814029363785,1.1442666666666668,-2.0124710005891506,-40.15957755639957,-0.7187396430675538,5.177814029363785,0.2219978147866106,0.26182707993474713,102.85799444444446,-9.505331779568401,4.611914061521437,1.0438027777777779,94.4063388150152,532.5795666666668
La0.167Sr0.167K0.167Mg0.167Nd0.167Eu0.167Fe1O3,-1.612124289,-2.019992658983094,41.50000000000001,5.743333333333334,1.12,1.3233333333333333,0.2715,2.333333333333333,5.5,97.69,2.333333333333333,34.98333333333334,0.9416564632916206,-0.71,15.095706105468768,4.340050377833754,1.4821333333333333,-2.2623917780610654,-70.66607652009192,-0.8657111395641833,4.340050377833754,0.35810557204763377,0.20516372795969776,129.27643333333333,-11.601491171426238,4.581799199664851,1.7512111111111108,42.15434576779162,561.0662333333333